Title: * C:\Users\Jimbles\ScouseTom\src\schematics\Small_CS\Sim\Howland_example.asc
Date: Mon Feb 27 14:39:37 2017
Plotname: Transient Analysis
Flags: real forward stepped
No. Variables: 2
No. Points:         4180
Offset:   0.0000000000000000e+000
Command: Linear Technology Corporation LTspice XVII
Backannotation: u2 1 2 3 4 5
Variables:
	0	time	time
	1	I(Rload)	device_current
Values:
0		0.000000000000000e+000
	6.666071292911473e-009
1		2.929687742403431e-011
	6.751019449514941e-009
2		5.859375484806861e-011
	6.837784101219121e-009
3		1.171875096961372e-010
	7.007010556453377e-009
4		2.343750193922745e-010
	7.318800653508155e-009
5		4.687500387845489e-010
	7.849266352039967e-009
6		9.375000775690978e-010
	8.625189613406540e-009
7		1.875000155138196e-009
	9.486558553536219e-009
8		3.750000310276391e-009
	1.010388236613336e-008
9		7.500000620552783e-009
	1.050048436458541e-008
10		1.500000124110557e-008
	1.123300891502907e-008
11		3.000000248221113e-008
	1.264267255436212e-008
12		6.000000496442226e-008
	1.441953273772992e-008
13		1.200000099288445e-007
	6.768874747632510e-009
14		2.400000198576890e-007
	-9.965110295132572e-008
15		4.632499464573299e-007
	-7.196397129848903e-007
16		7.330692169241326e-007
	-2.069594228533827e-006
17		1.125440205386076e-006
	-4.509326335925656e-006
18		1.574878555919837e-006
	-7.385419047993091e-006
19		2.178654268561500e-006
	-1.117769563400294e-005
20		3.296218669039345e-006
	-1.819315507420160e-005
21		5.347410667281830e-006
	-3.108159609073306e-005
22		8.277098167281831e-006
	-4.947042871033396e-005
23		1.120678566728183e-005
	-6.784915128842750e-005
24		1.413647316728183e-005
	-8.619952847246058e-005
25		1.706616066728183e-005
	-1.045249056706088e-004
26		1.999584816728183e-005
	-1.228116315371021e-004
27		2.292553566728183e-005
	-1.410591631738044e-004
28		2.585522316728183e-005
	-1.592571350335985e-004
29		2.878491066728183e-005
	-1.774023825075452e-004
30		3.171459816728183e-005
	-1.954866826438602e-004
31		3.464428566728183e-005
	-2.135052720808816e-004
32		3.757397316728183e-005
	-2.314512120318684e-004
33		4.050366066728184e-005
	-2.493188697032195e-004
34		4.343334816728184e-005
	-2.671020133368159e-004
35		4.636303566728184e-005
	-2.847946133587851e-004
36		4.929272316728184e-005
	-3.023907932933553e-004
37		5.222241066728185e-005
	-3.198844072048375e-004
38		5.515209816728185e-005
	-3.372697415863728e-004
39		5.808178566728185e-005
	-3.545406852159650e-004
40		6.101147316728185e-005
	-3.716915974910348e-004
41		6.394116066728185e-005
	-3.887164737224809e-004
42		6.687084816728185e-005
	-4.056097157850374e-004
43		6.980053566728186e-005
	-4.223654533648519e-004
44		7.273022316728186e-005
	-4.389781314728820e-004
45		7.565991066728186e-005
	-4.554420205794822e-004
46		7.858959816728186e-005
	-4.717516231553227e-004
47		8.151928566728187e-005
	-4.879013485309075e-004
48		8.444897316728187e-005
	-5.038857750104891e-004
49		8.737866066728187e-005
	-5.196994473264722e-004
50		9.030834816728187e-005
	-5.353370373972984e-004
51		9.323803566728188e-005
	-5.507932233345492e-004
52		9.616772316728188e-005
	-5.660627860921178e-004
53		9.909741066728188e-005
	-5.811405374410395e-004
54		1.020270981672819e-004
	-5.960213801528483e-004
55		1.049567856672819e-004
	-6.107002621017645e-004
56		1.078864731672819e-004
	-6.251722183845831e-004
57		1.108161606672819e-004
	-6.394323370707869e-004
58		1.137458481672819e-004
	-6.534757943640180e-004
59		1.166755356672819e-004
	-6.672978237030721e-004
60		1.196052231672819e-004
	-6.808937499676479e-004
61		1.225349106672819e-004
	-6.942589577434300e-004
62		1.254645981672819e-004
	-7.073889273414339e-004
63		1.283942856672819e-004
	-7.202792005232144e-004
64		1.313239731672819e-004
	-7.329254192459932e-004
65		1.342536606672819e-004
	-7.453232884926807e-004
66		1.371833481672819e-004
	-7.574686177104093e-004
67		1.401130356672819e-004
	-7.693572810214239e-004
68		1.430427231672819e-004
	-7.809852609285356e-004
69		1.459724106672819e-004
	-7.923486064026439e-004
70		1.489020981672819e-004
	-8.034434783334898e-004
71		1.518317856672819e-004
	-8.142661059996818e-004
72		1.547614731672819e-004
	-8.248128337883967e-004
73		1.576911606672819e-004
	-8.350800764757756e-004
74		1.606208481672819e-004
	-8.450643668341458e-004
75		1.635505356672819e-004
	-8.547623100503946e-004
76		1.664802231672819e-004
	-8.641706319377290e-004
77		1.694099106672819e-004
	-8.732861327280060e-004
78		1.723395981672819e-004
	-8.821057356876326e-004
79		1.752692856672819e-004
	-8.906264404477339e-004
80		1.781989731672819e-004
	-8.988453718856534e-004
81		1.811286606672819e-004
	-9.067597331050612e-004
82		1.840583481672819e-004
	-9.143668544874770e-004
83		1.869880356672820e-004
	-9.216641463995481e-004
84		1.899177231672820e-004
	-9.286491483473190e-004
85		1.928474106672820e-004
	-9.353194814654485e-004
86		1.957770981672820e-004
	-9.416728977249498e-004
87		1.987067856672820e-004
	-9.477072322450681e-004
88		2.016364731672820e-004
	-9.534204525164768e-004
89		2.045661606672820e-004
	-9.588106105677874e-004
90		2.074958481672820e-004
	-9.638758921733480e-004
91		2.104255356672820e-004
	-9.686145689007509e-004
92		2.133552231672820e-004
	-9.730250472771806e-004
93		2.162849106672820e-004
	-9.771058207404162e-004
94		2.192145981672820e-004
	-9.808555187411942e-004
95		2.221442856672820e-004
	-9.842728586173157e-004
96		2.250739731672820e-004
	-9.873566946122620e-004
97		2.280036606672820e-004
	-9.901059696896613e-004
98		2.309333481672820e-004
	-9.925197644508083e-004
99		2.338630356672820e-004
	-9.945972489046706e-004
100		2.367927231672820e-004
	-9.963377312691151e-004
101		2.397224106672820e-004
	-9.977406097097952e-004
102		2.426520981672820e-004
	-9.988054210118532e-004
103		2.455817856672820e-004
	-9.995317922993636e-004
104		2.485114731672820e-004
	-9.999194895660500e-004
105		2.514411606672820e-004
	-9.999683693854857e-004
106		2.543708481672820e-004
	-9.996784272909816e-004
107		2.573005356672820e-004
	-9.990497494854187e-004
108		2.602302231672820e-004
	-9.980825610619031e-004
109		2.631599106672820e-004
	-9.967771777209670e-004
110		2.660895981672820e-004
	-9.951340538248677e-004
111		2.690192856672820e-004
	-9.931537341288737e-004
112		2.719489731672820e-004
	-9.908369016632522e-004
113		2.748786606672820e-004
	-9.881843294844920e-004
114		2.778083481672820e-004
	-9.851969283800098e-004
115		2.807380356672820e-004
	-9.818756986444486e-004
116		2.836677231672820e-004
	-9.782217776030079e-004
117		2.865974106672820e-004
	-9.742363914173346e-004
118		2.895270981672820e-004
	-9.699209024241700e-004
119		2.924567856672820e-004
	-9.652767609748238e-004
120		2.953864731672820e-004
	-9.603055525865029e-004
121		2.983161606672820e-004
	-9.550089498189430e-004
122		3.012458481672820e-004
	-9.493887592363795e-004
123		3.041755356672820e-004
	-9.434468733245437e-004
124		3.071052231672820e-004
	-9.371853172617724e-004
125		3.100349106672820e-004
	-9.306062008792859e-004
126		3.129645981672820e-004
	-9.237117652403928e-004
127		3.158942856672820e-004
	-9.165043346467248e-004
128		3.188239731672820e-004
	-9.089863630249180e-004
129		3.217536606672820e-004
	-9.011603859812844e-004
130		3.246833481672820e-004
	-8.930290669957115e-004
131		3.276130356672820e-004
	-8.845951495271032e-004
132		3.305427231672821e-004
	-8.758615030145731e-004
133		3.334724106672821e-004
	-8.668310750358611e-004
134		3.364020981672821e-004
	-8.575069371161921e-004
135		3.393317856672821e-004
	-8.478922369417876e-004
136		3.422614731672821e-004
	-8.379902439770246e-004
137		3.451911606672821e-004
	-8.278043017350924e-004
138		3.481208481672821e-004
	-8.173378732043309e-004
139		3.510505356672821e-004
	-8.065944931780334e-004
140		3.539802231672821e-004
	-7.955778134910610e-004
141		3.569099106672821e-004
	-7.842915554107620e-004
142		3.598395981672821e-004
	-7.727395546851605e-004
143		3.627692856672821e-004
	-7.609257139969437e-004
144		3.656989731672821e-004
	-7.488540478247027e-004
145		3.686286606672821e-004
	-7.365286349619388e-004
146		3.715583481672821e-004
	-7.239536631929952e-004
147		3.744880356672821e-004
	-7.111333818790423e-004
148		3.774177231672821e-004
	-6.980721464504937e-004
149		3.803474106672821e-004
	-6.847743710619386e-004
150		3.832770981672821e-004
	-6.712445729029696e-004
151		3.862067856672821e-004
	-6.574873249240635e-004
152		3.891364731672821e-004
	-6.435072999678770e-004
153		3.920661606672821e-004
	-6.293092235680886e-004
154		3.949958481672821e-004
	-6.148979179033394e-004
155		3.979255356672821e-004
	-6.002782546710919e-004
156		4.008552231672821e-004
	-5.854551988664926e-004
157		4.037849106672821e-004
	-5.704337617333297e-004
158		4.067145981672821e-004
	-5.552190443702063e-004
159		4.096442856672821e-004
	-5.398161907607096e-004
160		4.125739731672821e-004
	-5.242304312093696e-004
161		4.155036606672821e-004
	-5.084670354532007e-004
162		4.184333481672821e-004
	-4.925313559299996e-004
163		4.213630356672821e-004
	-4.764287809734462e-004
164		4.242927231672821e-004
	-4.601647779163927e-004
165		4.272224106672821e-004
	-4.437448463717432e-004
166		4.301520981672821e-004
	-4.271745611734410e-004
167		4.330817856672821e-004
	-4.104595257454024e-004
168		4.360114731672821e-004
	-3.936054148829703e-004
169		4.389411606672821e-004
	-3.766179282122025e-004
170		4.418708481672822e-004
	-3.595028328146359e-004
171		4.448005356672822e-004
	-3.422659167792568e-004
172		4.477302231672822e-004
	-3.249130316734683e-004
173		4.506599106672822e-004
	-3.074500461901152e-004
174		4.535895981672822e-004
	-2.898828884675908e-004
175		4.565192856672822e-004
	-2.722174998343129e-004
176		4.594489731672822e-004
	-2.544598769809636e-004
177		4.623786606672822e-004
	-2.366160258048358e-004
178		4.653083481672822e-004
	-2.186920034372331e-004
179		4.682380356672822e-004
	-2.006938721901408e-004
180		4.711677231672822e-004
	-1.826277414418473e-004
181		4.740974106672822e-004
	-1.644997216884084e-004
182		4.770270981672822e-004
	-1.463159662905878e-004
183		4.799567856672822e-004
	-1.280826256326098e-004
184		4.828864731672822e-004
	-1.098058887335322e-004
185		4.858161606672822e-004
	-9.149193751579764e-005
186		4.887458481672821e-004
	-7.314698828418754e-005
187		4.916755356672821e-004
	-5.477724610668564e-005
188		4.946052231672821e-004
	-3.638894616417273e-005
189		4.975349106672821e-004
	-1.798830824614468e-005
190		5.004645981672821e-004
	4.184220256895185e-007
191		5.033942856672822e-004
	1.882501858429769e-005
192		5.063239731672822e-004
	3.722523381663554e-005
193		5.092536606672822e-004
	5.561284383060233e-005
194		5.121833481672822e-004
	7.398160747408134e-005
195		5.151130356672822e-004
	9.232531147941735e-005
196		5.180427231672822e-004
	1.106377295989963e-004
197		5.209724106672822e-004
	1.289126676247120e-004
198		5.239020981672822e-004
	1.471439226369036e-004
199		5.268317856672822e-004
	1.653253278962736e-004
200		5.297614731672822e-004
	1.834507122030182e-004
201		5.326911606672822e-004
	2.015139446586743e-004
202		5.356208481672822e-004
	2.195088941322767e-004
203		5.385505356672822e-004
	2.374294738896349e-004
204		5.414802231672822e-004
	2.552696011633718e-004
205		5.444099106672822e-004
	2.730232416471383e-004
206		5.473395981672822e-004
	2.906843691664144e-004
207		5.502692856672822e-004
	3.082470100351964e-004
208		5.531989731672822e-004
	3.257052028244545e-004
209		5.561286606672822e-004
	3.430530425788583e-004
210		5.590583481672822e-004
	3.602846406798210e-004
211		5.619880356672822e-004
	3.773941689198453e-004
212		5.649177231672822e-004
	3.943758194571185e-004
213		5.678474106672822e-004
	4.112238487451058e-004
214		5.707770981672822e-004
	4.279325375756824e-004
215		5.737067856672822e-004
	4.444962348616400e-004
216		5.766364731672822e-004
	4.609093177653919e-004
217		5.795661606672822e-004
	4.771662353320849e-004
218		5.824958481672822e-004
	4.932614687009624e-004
219		5.854255356672822e-004
	5.091895745868232e-004
220		5.883552231672822e-004
	5.249451455711630e-004
221		5.912849106672822e-004
	5.405228534297746e-004
222		5.942145981672822e-004
	5.559174095008414e-004
223		5.971442856672822e-004
	5.711236078565193e-004
224		6.000739731672822e-004
	5.861362857452083e-004
225		6.030036606672822e-004
	6.009503666050125e-004
226		6.059333481672822e-004
	6.155608205774776e-004
227		6.088630356672822e-004
	6.299627073608743e-004
228		6.117927231672822e-004
	6.441511367927494e-004
229		6.147224106672822e-004
	6.581213115410485e-004
230		6.176520981672823e-004
	6.718684877528826e-004
231		6.205817856672823e-004
	6.853880175815700e-004
232		6.235114731672823e-004
	6.986753098990916e-004
233		6.264411606672823e-004
	7.117258726571939e-004
234		6.293708481672823e-004
	7.245352736610768e-004
235		6.323005356672823e-004
	7.370991827627686e-004
236		6.352302231672823e-004
	7.494133326936692e-004
237		6.381599106672823e-004
	7.614735610884701e-004
238		6.410895981672823e-004
	7.732757713742480e-004
239		6.440192856672823e-004
	7.848159746233003e-004
240		6.469489731672823e-004
	7.960902504965415e-004
241		6.498786606672823e-004
	8.070947889236942e-004
242		6.528083481672823e-004
	8.178258510988543e-004
243		6.557380356672823e-004
	8.282798109865353e-004
244		6.586677231672823e-004
	8.384531163673377e-004
245		6.615974106672823e-004
	8.483423301684611e-004
246		6.645270981672823e-004
	8.579440915574798e-004
247		6.674567856672823e-004
	8.672551570960099e-004
248		6.703864731672823e-004
	8.762723618797079e-004
249		6.733161606672823e-004
	8.849926605138540e-004
250		6.762458481672823e-004
	8.934130882977675e-004
251		6.791755356672823e-004
	9.015308020211792e-004
252		6.821052231672823e-004
	9.093430411913428e-004
253		6.850349106672823e-004
	9.168471686491449e-004
254		6.879645981672823e-004
	9.240406318373060e-004
255		6.908942856672823e-004
	9.309210032352619e-004
256		6.938239731672823e-004
	9.374859416669352e-004
257		6.967536606672823e-004
	9.437332325535343e-004
258		6.996833481672823e-004
	9.496607492594583e-004
259		7.026130356672823e-004
	9.552664931622543e-004
260		7.055427231672823e-004
	9.605485550353353e-004
261		7.084724106672823e-004
	9.655051549344221e-004
262		7.114020981672823e-004
	9.701346036158484e-004
263		7.143317856672823e-004
	9.744353422389214e-004
264		7.172614731672823e-004
	9.784059038186895e-004
265		7.201911606672823e-004
	9.820449527437553e-004
266		7.231208481672823e-004
	9.853512462624789e-004
267		7.260505356672823e-004
	9.883236738158806e-004
268		7.289802231672824e-004
	9.909612185563630e-004
269		7.319099106672824e-004
	9.932629964954341e-004
270		7.348395981672824e-004
	9.952282180541376e-004
271		7.377692856672824e-004
	9.968562270254344e-004
272		7.406989731672824e-004
	9.981464621556277e-004
273		7.436286606672824e-004
	9.990984959213534e-004
274		7.465583481672824e-004
	9.997119961413887e-004
275		7.494880356672824e-004
	9.999867645682974e-004
276		7.524177231672824e-004
	9.999226985301314e-004
277		7.553474106672824e-004
	9.995198293368771e-004
278		7.582770981672824e-004
	9.987782839516518e-004
279		7.612067856672824e-004
	9.976983232122144e-004
280		7.641364731672824e-004
	9.962803035313723e-004
281		7.670661606672824e-004
	9.945247149339108e-004
282		7.699958481672824e-004
	9.924321427860294e-004
283		7.729255356672824e-004
	9.900033056481619e-004
284		7.758552231672824e-004
	9.872390170333626e-004
285		7.787849106672824e-004
	9.841402230765860e-004
286		7.817145981672824e-004
	9.807079643220625e-004
287		7.846442856672824e-004
	9.769434132096998e-004
288		7.875739731672824e-004
	9.728478358915887e-004
289		7.905036606672824e-004
	9.684226295363083e-004
290		7.934333481672824e-004
	9.636692841747984e-004
291		7.963630356672824e-004
	9.585894198234482e-004
292		7.992927231672824e-004
	9.531847483596806e-004
293		8.022224106672824e-004
	9.474571104648077e-004
294		8.051520981672824e-004
	9.414084375297770e-004
295		8.080817856672824e-004
	9.350407884188691e-004
296		8.110114731672824e-004
	9.283563114061596e-004
297		8.139411606672824e-004
	9.213572807612503e-004
298		8.168708481672824e-004
	9.140460587170862e-004
299		8.198005356672824e-004
	9.064251318790014e-004
300		8.227302231672824e-004
	8.984970732246518e-004
301		8.256599106672824e-004
	8.902645783377478e-004
302		8.285895981672824e-004
	8.817304274409517e-004
303		8.315192856672824e-004
	8.728975214557740e-004
304		8.344489731672824e-004
	8.637688440693773e-004
305		8.373786606672824e-004
	8.543474976222108e-004
306		8.403083481672824e-004
	8.446366652097594e-004
307		8.432380356672825e-004
	8.346396463995700e-004
308		8.461677231672825e-004
	8.243598193690919e-004
309		8.490974106672825e-004
	8.138006764538430e-004
310		8.520270981672825e-004
	8.029657863225600e-004
311		8.549567856672825e-004
	7.918588293583509e-004
312		8.578864731672825e-004
	7.804835598724726e-004
313		8.608161606672825e-004
	7.688438413203889e-004
314		8.637458481672825e-004
	7.569436085555803e-004
315		8.666755356672825e-004
	7.447869028825249e-004
316		8.696052231672825e-004
	7.323778343520165e-004
317		8.725349106672825e-004
	7.197206166531679e-004
318		8.754645981672825e-004
	7.068195294518087e-004
319		8.783942856672825e-004
	6.936789531236738e-004
320		8.813239731672825e-004
	6.803033311375405e-004
321		8.842536606672825e-004
	6.666972046318491e-004
322		8.871833481672825e-004
	6.528651748442978e-004
323		8.901130356672825e-004
	6.388119375342296e-004
324		8.930427231672825e-004
	6.245422454604847e-004
325		8.959724106672825e-004
	6.100609426519412e-004
326		8.989020981672825e-004
	5.953729269355025e-004
327		9.018317856672825e-004
	5.804831840572596e-004
328		9.047614731672825e-004
	5.653967502625492e-004
329		9.076911606672825e-004
	5.501187462702718e-004
330		9.106208481672825e-004
	5.346543399070239e-004
331		9.135505356672825e-004
	5.190087799371661e-004
332		9.164802231672825e-004
	5.031873587531039e-004
333		9.194099106672825e-004
	4.871954460637477e-004
334		9.223395981672825e-004
	4.710384516430817e-004
335		9.252692856672825e-004
	4.547218588797250e-004
336		9.281989731672825e-004
	4.382511875859616e-004
337		9.311286606672825e-004
	4.216320274111783e-004
338		9.340583481672825e-004
	4.048700007135926e-004
339		9.369880356672825e-004
	3.879707958403680e-004
340		9.399177231672825e-004
	3.709401300643411e-004
341		9.428474106672825e-004
	3.537837827336710e-004
342		9.457770981672825e-004
	3.365075582758877e-004
343		9.487067856672825e-004
	3.191173192199897e-004
344		9.516364731672825e-004
	3.016189492701905e-004
345		9.545661606672826e-004
	2.840183862033918e-004
346		9.574958481672826e-004
	2.663215850150569e-004
347		9.604255356672826e-004
	2.485345506950348e-004
348		9.633552231672826e-004
	2.306633014480000e-004
349		9.662849106672826e-004
	2.127139013506486e-004
350		9.692145981672826e-004
	1.946924236491855e-004
351		9.721442856672826e-004
	1.766049833009181e-004
352		9.750739731672826e-004
	1.584577003513141e-004
353		9.780036606672825e-004
	1.402567323630527e-004
354		9.809333481672824e-004
	1.220082378751778e-004
355		9.838630356672823e-004
	1.037184087226968e-004
356		9.867927231672821e-004
	8.539343358038565e-005
357		9.897224106672820e-004
	6.703953017603379e-005
358		9.926520981672819e-004
	4.866290892146766e-005
359		9.955817856672818e-004
	3.026980502255405e-005
360		9.985114731672817e-004
	1.186644220003636e-005
361		1.001441160667282e-003
	-6.540935300591495e-006
362		1.004370848167282e-003
	-2.494609889584099e-005
363		1.007300535667281e-003
	-4.334280375135244e-005
364		1.010230223167281e-003
	-6.172482487365120e-005
365		1.013159910667281e-003
	-8.008592529113897e-005
366		1.016089598167281e-003
	-9.841989204824410e-005
367		1.019019285667281e-003
	-1.167205044771608e-004
368		1.021948973167281e-003
	-1.349815700917960e-004
369		1.024878660667281e-003
	-1.531968929471339e-004
370		1.027808348167281e-003
	-1.713603094303923e-004
371		1.030738035667281e-003
	-1.894656567048997e-004
372		1.033667723167280e-003
	-2.075068083958800e-004
373		1.036597410667280e-003
	-2.254776431157509e-004
374		1.039527098167280e-003
	-2.433720800419721e-004
375		1.042456785667280e-003
	-2.611840475206774e-004
376		1.045386473167280e-003
	-2.789075185340478e-004
377		1.048316160667280e-003
	-2.965364793792202e-004
378		1.051245848167280e-003
	-3.140649650226546e-004
379		1.054175535667280e-003
	-3.314870278512935e-004
380		1.057105223167280e-003
	-3.487967729114218e-004
381		1.060034910667280e-003
	-3.659883267290742e-004
382		1.062964598167279e-003
	-3.830558724309187e-004
383		1.065894285667279e-003
	-3.999936186309412e-004
384		1.068823973167279e-003
	-4.167958344309160e-004
385		1.071753660667279e-003
	-4.334568183704397e-004
386		1.074683348167279e-003
	-4.499709333045839e-004
387		1.077613035667279e-003
	-4.663325754143829e-004
388		1.080542723167279e-003
	-4.825362089593162e-004
389		1.083472410667279e-003
	-4.985763353453995e-004
390		1.086402098167279e-003
	-5.144475277501783e-004
391		1.089331785667278e-003
	-5.301444002456239e-004
392		1.092261473167278e-003
	-5.456616422933676e-004
393		1.095191160667278e-003
	-5.609939879196548e-004
394		1.098120848167278e-003
	-5.761362500786041e-004
395		1.101050535667278e-003
	-5.910832898765119e-004
396		1.103980223167278e-003
	-6.058300508009867e-004
397		1.106909910667278e-003
	-6.203715279919622e-004
398		1.109839598167278e-003
	-6.347028023345952e-004
399		1.112769285667278e-003
	-6.488190097744171e-004
400		1.115698973167278e-003
	-6.627153752719486e-004
401		1.118628660667277e-003
	-6.763871821594717e-004
402		1.121558348167277e-003
	-6.898298059553853e-004
403		1.124488035667277e-003
	-7.030386837601514e-004
404		1.127417723167277e-003
	-7.160093479284725e-004
405		1.130347410667277e-003
	-7.287373955020381e-004
406		1.133277098167277e-003
	-7.412185217376836e-004
407		1.136206785667277e-003
	-7.534484895746282e-004
408		1.139136473167277e-003
	-7.654231630168457e-004
409		1.142066160667277e-003
	-7.771384766325641e-004
410		1.144995848167276e-003
	-7.885904687891554e-004
411		1.147925535667276e-003
	-7.997752511827455e-004
412		1.150855223167276e-003
	-8.106890419240066e-004
413		1.153784910667276e-003
	-8.213281350958055e-004
414		1.156714598167276e-003
	-8.316889336883646e-004
415		1.159644285667276e-003
	-8.417679191829609e-004
416		1.162573973167276e-003
	-8.515616843350038e-004
417		1.165503660667276e-003
	-8.610669027818835e-004
418		1.168433348167276e-003
	-8.702803616725969e-004
419		1.171363035667276e-003
	-8.791989312979330e-004
420		1.174292723167275e-003
	-8.878195975653709e-004
421		1.177222410667275e-003
	-8.961394316498750e-004
422		1.180152098167275e-003
	-9.041556223128735e-004
423		1.183081785667275e-003
	-9.118654455720376e-004
424		1.186011473167275e-003
	-9.192662968632410e-004
425		1.188941160667275e-003
	-9.263556607277829e-004
426		1.191870848167275e-003
	-9.331311428163253e-004
427		1.194800535667275e-003
	-9.395904395921212e-004
428		1.197730223167275e-003
	-9.457313701760168e-004
429		1.200659910667274e-003
	-9.515518460643393e-004
430		1.203589598167274e-003
	-9.570499028141597e-004
431		1.206519285667274e-003
	-9.622236697745865e-004
432		1.209448973167274e-003
	-9.670714016115733e-004
433		1.212378660667274e-003
	-9.715914480514810e-004
434		1.215308348167274e-003
	-9.757822852448111e-004
435		1.218238035667274e-003
	-9.796424855209895e-004
436		1.221167723167274e-003
	-9.831707485905173e-004
437		1.224097410667274e-003
	-9.863658713100301e-004
438		1.227027098167274e-003
	-9.892267787224511e-004
439		1.229956785667273e-003
	-9.917524938314983e-004
440		1.232886473167273e-003
	-9.939421684795223e-004
441		1.235816160667273e-003
	-9.957950531307210e-004
442		1.238745848167273e-003
	-9.973105275864664e-004
443		1.241675535667273e-003
	-9.984880707765949e-004
444		1.244605223167273e-003
	-9.993272913121167e-004
445		1.247534910667273e-003
	-9.998278972840602e-004
446		1.250464598167273e-003
	-9.999897266535639e-004
447		1.253394285667273e-003
	-9.998127170578570e-004
448		1.256323973167272e-003
	-9.992969360378410e-004
449		1.259253660667272e-003
	-9.984425508508972e-004
450		1.262183348167272e-003
	-9.972498585361599e-004
451		1.265113035667272e-003
	-9.957192557339472e-004
452		1.268042723167272e-003
	-9.938512685890514e-004
453		1.270972410667272e-003
	-9.916465225766839e-004
454		1.273902098167272e-003
	-9.891057722442008e-004
455		1.276831785667272e-003
	-9.862298710435718e-004
456		1.279761473167272e-003
	-9.830198009120675e-004
457		1.282691160667272e-003
	-9.794766421113612e-004
458		1.285620848167271e-003
	-9.756016026478049e-004
459		1.288550535667271e-003
	-9.713959881183812e-004
460		1.291480223167271e-003
	-9.668612309713021e-004
461		1.294409910667271e-003
	-9.619988603591312e-004
462		1.297339598167271e-003
	-9.568105312405341e-004
463		1.300269285667271e-003
	-9.512979942410054e-004
464		1.303198973167271e-003
	-9.454631245967008e-004
465		1.306128660667271e-003
	-9.393078920232942e-004
466		1.309058348167271e-003
	-9.328343895029391e-004
467		1.311988035667270e-003
	-9.260448031618706e-004
468		1.314917723167270e-003
	-9.189414409016429e-004
469		1.317847410667270e-003
	-9.115267022862103e-004
470		1.320777098167270e-003
	-9.038031070186613e-004
471		1.323706785667270e-003
	-8.957732648386172e-004
472		1.326636473167270e-003
	-8.874399038458009e-004
473		1.329566160667270e-003
	-8.788058404086736e-004
474		1.332495848167270e-003
	-8.698740073362648e-004
475		1.335425535667270e-003
	-8.606474237990674e-004
476		1.338355223167269e-003
	-8.511292233506673e-004
477		1.341284910667269e-003
	-8.413226238620095e-004
478		1.344214598167269e-003
	-8.312309553944213e-004
479		1.347144285667269e-003
	-8.208576301484811e-004
480		1.350073973167269e-003
	-8.102061701901498e-004
481		1.353003660667269e-003
	-7.992801774155229e-004
482		1.355933348167269e-003
	-7.880833611318623e-004
483		1.358863035667269e-003
	-7.766195080396351e-004
484		1.361792723167269e-003
	-7.648925096703335e-004
485		1.364722410667269e-003
	-7.529063323872592e-004
486		1.367652098167268e-003
	-7.406650446820936e-004
487		1.370581785667268e-003
	-7.281727871960033e-004
488		1.373511473167268e-003
	-7.154337998770114e-004
489		1.376441160667268e-003
	-7.024523920230449e-004
490		1.379370848167268e-003
	-6.892329693022391e-004
491		1.382300535667268e-003
	-6.757800038196660e-004
492		1.385230223167268e-003
	-6.620980610027641e-004
493		1.388159910667268e-003
	-6.481917696935360e-004
494		1.391089598167268e-003
	-6.340658489013845e-004
495		1.394019285667267e-003
	-6.197250779226694e-004
496		1.396948973167267e-003
	-6.051743229632811e-004
497		1.399878660667267e-003
	-5.904185072874883e-004
498		1.402808348167267e-003
	-5.754626377126970e-004
499		1.405738035667267e-003
	-5.603117747895885e-004
500		1.408667723167267e-003
	-5.449710591715247e-004
501		1.411597410667267e-003
	-5.294456818280703e-004
502		1.414527098167267e-003
	-5.137409102915996e-004
503		1.417456785667267e-003
	-4.978620589063307e-004
504		1.420386473167267e-003
	-4.818145149547251e-004
505		1.423316160667266e-003
	-4.656037089442440e-004
506		1.426245848167266e-003
	-4.492351406162075e-004
507		1.429175535667266e-003
	-4.327143492725137e-004
508		1.432105223167266e-003
	-4.160469396696726e-004
509		1.435034910667266e-003
	-3.992385523877929e-004
510		1.437964598167266e-003
	-3.822948896125575e-004
511		1.440894285667266e-003
	-3.652216855488287e-004
512		1.443823973167266e-003
	-3.480247320933685e-004
513		1.446753660667266e-003
	-3.307098492954686e-004
514		1.449683348167265e-003
	-3.132829109232631e-004
515		1.452613035667265e-003
	-2.957498149738224e-004
516		1.455542723167265e-003
	-2.781165091359534e-004
517		1.458472410667265e-003
	-2.603889613522319e-004
518		1.461402098167265e-003
	-2.425731851812038e-004
519		1.464331785667265e-003
	-2.246752104138926e-004
520		1.467261473167265e-003
	-2.067011083383559e-004
521		1.470191160667265e-003
	-1.886569624131848e-004
522		1.473120848167265e-003
	-1.705488934374188e-004
523		1.476050535667265e-003
	-1.523830302836241e-004
524		1.478980223167264e-003
	-1.341655349761506e-004
525		1.481909910667264e-003
	-1.159025734863824e-004
526		1.484839598167264e-003
	-9.760034072239023e-005
527		1.487769285667264e-003
	-7.926503138895939e-005
528		1.490698973167264e-003
	-6.090286489166439e-005
529		1.493628660667264e-003
	-4.252005626431523e-005
530		1.496558348167264e-003
	-2.412284099052835e-005
531		1.499488035667264e-003
	-5.717446001225000e-006
532		1.502417723167264e-003
	1.268988558325263e-005
533		1.505347410667263e-003
	3.109292338293186e-005
534		1.508277098167263e-003
	4.948542509245339e-005
535		1.511206785667263e-003
	6.786116533551177e-005
536		1.514136473167263e-003
	8.621391107241294e-005
537		1.517066160667263e-003
	1.045374503764764e-004
538		1.519995848167263e-003
	1.228255679118256e-004
539		1.522925535667263e-003
	1.410720736291314e-004
540		1.525855223167263e-003
	1.592707783105784e-004
541		1.528784910667263e-003
	1.774155221822740e-004
542		1.531714598167263e-003
	1.955001505233362e-004
543		1.534644285667262e-003
	2.135185421923717e-004
544		1.537573973167262e-003
	2.314645852976304e-004
545		1.540503660667262e-003
	2.493322056349149e-004
546		1.543433348167262e-003
	2.671153424157957e-004
547		1.546363035667262e-003
	2.848079766143667e-004
548		1.549292723167262e-003
	3.024041067505180e-004
549		1.552222410667262e-003
	3.198977771429368e-004
550		1.555152098167262e-003
	3.372830537444817e-004
551		1.558081785667262e-003
	3.545540522989066e-004
552		1.561011473167261e-003
	3.717049142253562e-004
553		1.563941160667261e-003
	3.887298346762902e-004
554		1.566870848167261e-003
	4.056230384682289e-004
555		1.569800535667261e-003
	4.223788080383733e-004
556		1.572730223167261e-003
	4.389914594187122e-004
557		1.575659910667261e-003
	4.554553700889045e-004
558		1.578589598167261e-003
	4.717649549909274e-004
559		1.581519285667261e-003
	4.879146942758082e-004
560		1.584448973167261e-003
	5.038991093560108e-004
561		1.587378660667260e-003
	5.197127905436627e-004
562		1.590308348167260e-003
	5.353503731379586e-004
563		1.593238035667260e-003
	5.508065649525558e-004
564		1.596167723167260e-003